 Gaussian 09, Revision D.01,
 Gaussian 09:  ES64L-G09RevD.01 24-Apr-2013

 --------------------------------------
 # opt b3lyp/6-311++g geom=connectivity
 --------------------------------------

 ------
 opt tc
 ------
 Symbolic Z-matrix:
 Charge =  0 Multiplicity = 1

 SCF Done:  E(RB3LYP) =  -689.376922595     A.U. after   14 cycles
 SCF Done:  E(RB3LYP) =  -689.389570179     A.U. after   13 cycles
 SCF Done:  E(RB3LYP) =  -689.390948728     A.U. after   12 cycles
 SCF Done:  E(RB3LYP) =  -689.391035213     A.U. after   12 cycles
 SCF Done:  E(RB3LYP) =  -689.391109874     A.U. after   12 cycles
 SCF Done:  E(RB3LYP) =  -689.391327007     A.U. after   12 cycles
 SCF Done:  E(RB3LYP) =  -689.391432244     A.U. after   12 cycles
 SCF Done:  E(RB3LYP) =  -689.391522631     A.U. after   14 cycles
 SCF Done:  E(RB3LYP) =  -689.391603311     A.U. after   12 cycles
 SCF Done:  E(RB3LYP) =  -689.391764806     A.U. after   15 cycles
 SCF Done:  E(RB3LYP) =  -689.392021707     A.U. after   12 cycles
 SCF Done:  E(RB3LYP) =  -689.392027609     A.U. after   12 cycles
 SCF Done:  E(RB3LYP) =  -689.392032234     A.U. after   12 cycles
 SCF Done:  E(RB3LYP) =  -689.392033021     A.U. after   10 cycles
 SCF Done:  E(RB3LYP) =  -689.392033390     A.U. after   10 cycles
 SCF Done:  E(RB3LYP) =  -689.392033510     A.U. after    9 cycles
 SCF Done:  E(RB3LYP) =  -689.392033750     A.U. after    9 cycles
 SCF Done:  E(RB3LYP) =  -689.392033950     A.U. after    9 cycles
 SCF Done:  E(RB3LYP) =  -689.392034056     A.U. after    8 cycles
 SCF Done:  E(RB3LYP) =  -689.392034115     A.U. after    9 cycles
 Optimization completed.
    -- Stationary point found.

                         Standard orientation:
 ---------------------------------------------------------------------
 Center     Atomic      Atomic             Coordinates (Angstroms)
 Number     Number       Type             X           Y           Z
 ---------------------------------------------------------------------
      1          8           0        0.562120    1.226919    0.610626
      2          8           0       -1.645997   -0.385094   -0.339966
      3          8           0        1.149702    2.423736   -1.262729
      4          8           0        2.205618   -1.922313   -0.348111
      5          8           0       -2.993800   -1.789908    0.868203
      6          6           0        0.465605    3.595592    0.757848
      7          6           0       -3.985734   -0.241293   -0.730277
      8          6           0        0.767470    2.399359   -0.092125
      9          6           0        0.715197   -0.066813   -0.093171
     10          6           0       -2.870466   -0.899089    0.024235
     11          6           0       -0.448230   -0.936877    0.318289
     12          6           0        2.063446   -0.645547    0.325750
     13          6           0        3.492088   -2.563839   -0.135193
     14          1           0        0.728836    4.500483    0.218118
     15          1           0        1.019143    3.546810    1.695600
     16          1           0       -3.853570   -0.388604   -1.802840
     17          1           0       -3.984384    0.833791   -0.547099
     18          1           0        0.704688    0.118635   -1.165049
     19          1           0       -0.596524   -0.928913    1.397093
     20          1           0       -0.291126   -1.958808   -0.020966
     21          1           0        2.104298   -0.778962    1.413047
     22          1           0        2.861779    0.039284    0.022758
     23          1           0        4.306989   -1.937877   -0.511723
     24          1           0        3.653598   -2.775980    0.926445
     25          1           0       -0.596445    3.615796    1.007411
     26          1           0       -4.934709   -0.666024   -0.416502
     27          1           0        3.460017   -3.495306   -0.692612
 ---------------------------------------------------------------------

 The electronic state is 1-A.
 Alpha  occ. eigenvalues --  -19.18081 -19.17726 -19.14620 -19.13488 -19.12942
 Alpha  occ. eigenvalues --  -10.33355 -10.32772 -10.25783 -10.24492 -10.24366
 Alpha  occ. eigenvalues --  -10.23148 -10.19463 -10.19034  -1.12254  -1.11573
 Alpha  occ. eigenvalues --   -1.04896  -1.04005  -1.03185  -0.82940  -0.77870
 Alpha  occ. eigenvalues --   -0.76526  -0.72927  -0.68446  -0.63522  -0.58686
 Alpha  occ. eigenvalues --   -0.58541  -0.52003  -0.51115  -0.50339  -0.49836
 Alpha  occ. eigenvalues --   -0.48853  -0.48635  -0.47817  -0.47062  -0.46101
 Alpha  occ. eigenvalues --   -0.44817  -0.43991  -0.42649  -0.42080  -0.41395
 Alpha  occ. eigenvalues --   -0.40236  -0.38526  -0.38273  -0.36848  -0.35466
 Alpha  occ. eigenvalues --   -0.33876  -0.31644  -0.31292  -0.29264  -0.28662
 Alpha  occ. eigenvalues --   -0.27949
 Alpha virt. eigenvalues --   -0.02440  -0.01851  -0.01429  -0.00911   0.00027
 Alpha virt. eigenvalues --    0.01173   0.01673   0.02050   0.02931   0.03306
 Alpha virt. eigenvalues --    0.03668   0.03975   0.04429   0.05037   0.05344

 Mulliken charges:
               1
     1  O    0.042048
     2  O   -0.079721
     3  O   -0.291941
     4  O   -0.102159
     5  O   -0.329560
     6  C   -0.921759
     7  C   -1.034027
     8  C    0.449021
     9  C   -0.927282
    10  C    0.527845
    11  C   -0.235888
    12  C   -0.560890
    13  C   -0.479462
    14  H    0.251034
    15  H    0.264665
    16  H    0.277156
    17  H    0.268147
    18  H    0.425417
    19  H    0.321602
    20  H    0.353338
    21  H    0.309843
    22  H    0.272551
    23  H    0.210846
    24  H    0.220250
    25  H    0.286032
    26  H    0.255139
    27  H    0.227758
 Sum of Mulliken charges =   0.00000

 Dipole moment (field-independent basis, Debye):
    X=              1.6939    Y=              1.1026    Z=              1.2628  Tot=              2.3832
 Quadrupole moment (field-independent basis, Debye-Ang):
   XX=            -68.6737   YY=            -78.2324   ZZ=            -84.3558
   XY=            -13.2009   XZ=             10.7068   YZ=              9.1169

 Normal termination of Gaussian 09 at Tue Dec 13 10:25:51 2022.
