 Gaussian 09, Revision D.01,
 Gaussian 09:  ES64L-G09RevD.01 24-Apr-2013

 --------------------------------------
 # opt b3lyp/6-311++g geom=connectivity
 --------------------------------------

 -------------------
 Title Card Required
 -------------------
 Symbolic Z-matrix:
 Charge =  0 Multiplicity = 1

 SCF Done:  E(RB3LYP) =  -740.104181658     A.U. after   14 cycles
 SCF Done:  E(RB3LYP) =  -740.126167662     A.U. after   12 cycles
 SCF Done:  E(RB3LYP) =  -740.128086657     A.U. after   12 cycles
 SCF Done:  E(RB3LYP) =  -740.128221202     A.U. after   11 cycles
 SCF Done:  E(RB3LYP) =  -740.128243379     A.U. after   12 cycles
 SCF Done:  E(RB3LYP) =  -740.128393406     A.U. after   11 cycles
 SCF Done:  E(RB3LYP) =  -740.128461918     A.U. after   11 cycles
 SCF Done:  E(RB3LYP) =  -740.128511751     A.U. after   11 cycles
 SCF Done:  E(RB3LYP) =  -740.128589078     A.U. after   12 cycles
 SCF Done:  E(RB3LYP) =  -740.128612548     A.U. after   12 cycles
 SCF Done:  E(RB3LYP) =  -740.129530055     A.U. after   12 cycles
 SCF Done:  E(RB3LYP) =  -740.129592219     A.U. after   11 cycles
 SCF Done:  E(RB3LYP) =  -740.129618908     A.U. after   11 cycles
 SCF Done:  E(RB3LYP) =  -740.129621646     A.U. after   10 cycles
 SCF Done:  E(RB3LYP) =  -740.129624617     A.U. after    9 cycles
 SCF Done:  E(RB3LYP) =  -740.129626208     A.U. after    9 cycles
 SCF Done:  E(RB3LYP) =  -740.129628161     A.U. after   10 cycles
 SCF Done:  E(RB3LYP) =  -740.129630075     A.U. after   10 cycles
 SCF Done:  E(RB3LYP) =  -740.129631075     A.U. after    9 cycles
 SCF Done:  E(RB3LYP) =  -740.129631120     A.U. after    8 cycles
 Optimization completed.
    -- Stationary point found.

                         Standard orientation:
 ---------------------------------------------------------------------
 Center     Atomic      Atomic             Coordinates (Angstroms)
 Number     Number       Type             X           Y           Z
 ---------------------------------------------------------------------
      1          8           0       -7.845688   -0.686501    0.000257
      2          8           0       -6.878186    1.388633   -0.000187
      3          6           0        0.923151    0.379069    0.000112
      4          6           0        2.227057   -0.437111    0.000005
      5          6           0       -0.345632   -0.490626    0.000083
      6          6           0        3.496659    0.431436    0.000187
      7          6           0       -1.649642    0.325135   -0.000048
      8          6           0        4.800123   -0.385506   -0.000049
      9          6           0       -2.917044   -0.546230   -0.000287
     10          6           0        6.070381    0.482121    0.000107
     11          6           0       -4.217065    0.275100   -0.000310
     12          6           0        7.373443   -0.335005    0.000010
     13          6           0        8.644690    0.531533   -0.000015
     14          6           0       -5.467194   -0.612599   -0.000309
     15          6           0        9.940523   -0.293480    0.000005
     16          6           0       -6.758749    0.160924   -0.000084
     17          6           0       -9.180911   -0.068681    0.000462
     18          1           0        0.909482    1.037430    0.877062
     19          1           0        0.909424    1.037577   -0.876726
     20          1           0        2.240459   -1.095778    0.876853
     21          1           0        2.240502   -1.095474   -0.877070
     22          1           0       -0.331468   -1.149097   -0.876897
     23          1           0       -0.331577   -1.148983    0.877151
     24          1           0        3.483460    1.090150   -0.876574
     25          1           0        3.483506    1.089708    0.877280
     26          1           0       -1.664519    0.983295    0.876713
     27          1           0       -1.664270    0.983409   -0.876729
     28          1           0        4.813107   -1.044249    0.876733
     29          1           0        4.813047   -1.043842   -0.877137
     30          1           0       -2.900931   -1.204556   -0.877502
     31          1           0       -2.901098   -1.204834    0.876721
     32          1           0        6.057574    1.140787   -0.876750
     33          1           0        6.057539    1.140527    0.877159
     34          1           0       -4.239163    0.933283    0.872575
     35          1           0       -4.239142    0.933211   -0.873254
     36          1           0        7.387312   -0.993775    0.876936
     37          1           0        7.387236   -0.993697   -0.876975
     38          1           0        8.630743    1.189611   -0.876201
     39          1           0        8.630747    1.189646    0.876144
     40          1           0       -5.474596   -1.275027   -0.871600
     41          1           0       -5.474418   -1.275317    0.870755
     42          1           0       10.823454    0.349962   -0.000420
     43          1           0        9.997517   -0.936974   -0.882194
     44          1           0        9.997907   -0.936343    0.882638
     45          1           0       -9.309542    0.545141   -0.888766
     46          1           0       -9.870964   -0.904902    0.000843
     47          1           0       -9.309071    0.545584    0.889450
 ---------------------------------------------------------------------

 The electronic state is 1-A.
 Alpha  occ. eigenvalues --  -19.17525 -19.12850 -10.32269 -10.23391 -10.19406
 Alpha  occ. eigenvalues --  -10.17381 -10.17155 -10.16772 -10.16666 -10.16608
 Alpha  occ. eigenvalues --  -10.16554 -10.16510 -10.16468 -10.16448 -10.16426
 Alpha  occ. eigenvalues --  -10.16398 -10.15782  -1.11458  -1.03098  -0.82429
 Alpha  occ. eigenvalues --   -0.81533  -0.80162  -0.78244  -0.75970  -0.73779
 Alpha  occ. eigenvalues --   -0.71435  -0.68292  -0.64756  -0.61406  -0.59105
 Alpha  occ. eigenvalues --   -0.58569  -0.58020  -0.57781  -0.56314  -0.51032
 Alpha  occ. eigenvalues --   -0.50381  -0.49197  -0.48307  -0.47559  -0.47084
 Alpha  occ. eigenvalues --   -0.45531  -0.44023  -0.43605  -0.43482  -0.43214
 Alpha  occ. eigenvalues --   -0.41475  -0.41457  -0.41119  -0.39408  -0.39135
 Alpha  occ. eigenvalues --   -0.37626  -0.37596  -0.36798  -0.36036  -0.35842
 Alpha  occ. eigenvalues --   -0.35050  -0.34319  -0.33803  -0.33297  -0.33105
 Alpha  occ. eigenvalues --   -0.32923  -0.32702  -0.32513  -0.32385  -0.32281
 Alpha  occ. eigenvalues --   -0.31014  -0.29872  -0.28530
 Alpha virt. eigenvalues --   -0.01662  -0.01065  -0.00663  -0.00149   0.00285
 Alpha virt. eigenvalues --    0.00549   0.00607   0.01159   0.01427   0.01689
 Alpha virt. eigenvalues --    0.02403   0.02646   0.03037   0.03379   0.03804

 Mulliken charges:
               1
     1  O   -0.108297
     2  O   -0.303658
     3  C   -0.438498
     4  C   -0.436764
     5  C   -0.499303
     6  C   -0.452979
     7  C   -0.365981
     8  C   -0.421206
     9  C   -0.678062
    10  C   -0.360232
    11  C   -0.157997
    12  C   -0.379593
    13  C   -0.222240
    14  C   -0.762539
    15  C   -0.956173
    16  C    0.179418
    17  C   -0.506646
    18  H    0.214475
    19  H    0.214456
    20  H    0.211957
    21  H    0.211947
    22  H    0.215865
    23  H    0.215872
    24  H    0.213114
    25  H    0.213102
    26  H    0.207818
    27  H    0.207833
    28  H    0.211939
    29  H    0.211936
    30  H    0.205179
    31  H    0.205161
    32  H    0.209341
    33  H    0.209348
    34  H    0.277342
    35  H    0.277375
    36  H    0.210006
    37  H    0.209980
    38  H    0.223338
    39  H    0.223356
    40  H    0.314388
    41  H    0.314355
    42  H    0.243813
    43  H    0.215727
    44  H    0.215745
    45  H    0.267440
    46  H    0.231106
    47  H    0.267436
 Sum of Mulliken charges =   0.00000

 Dipole moment (field-independent basis, Debye):
    X=             -0.2348    Y=             -1.5859    Z=              0.0002  Tot=              1.6031
 Quadrupole moment (field-independent basis, Debye-Ang):
   XX=           -101.9312   YY=           -120.0469   ZZ=           -109.8380
   XY=             10.6967   XZ=             -0.0026   YZ=              0.0009

 Normal termination of Gaussian 09 at Tue Dec 13 14:25:05 2022.
