 Gaussian 09, Revision D.01,
 Gaussian 09:  ES64L-G09RevD.01 24-Apr-2013

 ----------------------------------------------------------------------
 # HF/6-311G* SCF=Tight Pop=MK IOp(6/33=2,6/41=10,6/42=17) iop(6/50=1)
 geom=connectivity
 ----------------------------------------------------------------------

 -------------------
 Title Card Required
 -------------------
 Symbolic Z-matrix:
 Charge =  0 Multiplicity = 1

                         Standard orientation:
 ---------------------------------------------------------------------
 Center     Atomic      Atomic             Coordinates (Angstroms)
 Number     Number       Type             X           Y           Z
 ---------------------------------------------------------------------
      1          8           0       -1.747197   -0.519375   -0.000014
      2          6           0       -3.050050    0.118236    0.000052
      3          6           0       -0.633469    0.415571   -0.000043
      4          6           0        0.633467   -0.415564   -0.000053
      5          8           0        1.747200    0.519379   -0.000023
      6          6           0        3.050048   -0.118245    0.000059
      7          1           0       -3.781616   -0.685003    0.000067
      8          1           0       -3.185857    0.737341   -0.893134
      9          1           0       -3.185784    0.737307    0.893271
     10          1           0       -0.668994    1.052843    0.889782
     11          1           0       -0.669022    1.052820   -0.889883
     12          1           0        0.669018   -1.052806   -0.889897
     13          1           0        0.669000   -1.052831    0.889772
     14          1           0        3.781622    0.684986    0.000076
     15          1           0        3.185867   -0.737350   -0.893128
     16          1           0        3.185767   -0.737322    0.893275
 ---------------------------------------------------------------------

 SCF Done:  E(RHF) =  -307.039329455     A.U. after   11 cycles

 The electronic state is 1-A.
 Alpha  occ. eigenvalues --  -20.54700 -20.54700 -11.27319 -11.27253 -11.27184
 Alpha  occ. eigenvalues --  -11.27184  -1.35220  -1.34057  -1.01947  -0.93106
 Alpha  occ. eigenvalues --   -0.88614  -0.82540  -0.67751  -0.65212  -0.63995
 Alpha  occ. eigenvalues --   -0.63159  -0.59921  -0.58894  -0.57879  -0.52018
 Alpha  occ. eigenvalues --   -0.50489  -0.48069  -0.46895  -0.42446  -0.42311
 Alpha virt. eigenvalues --    0.15966   0.16310   0.19785   0.20003   0.20839
 Alpha virt. eigenvalues --    0.22743   0.23402   0.24478   0.25195   0.26263
 Alpha virt. eigenvalues --    0.28451   0.31903   0.37706   0.38358   0.43572

 Mulliken charges:
               1
     1  O   -0.505051
     2  C   -0.348909
     3  C   -0.136645
     4  C   -0.136644
     5  O   -0.505051
     6  C   -0.348910
     7  H    0.215123
     8  H    0.191799
     9  H    0.191800
    10  H    0.195941
    11  H    0.195941
    12  H    0.195942
    13  H    0.195942
    14  H    0.215123
    15  H    0.191798
    16  H    0.191800
 Sum of Mulliken charges =   0.00000

 Dipole moment (field-independent basis, Debye):
    X=              0.0000    Y=              0.0000    Z=              0.0001  Tot=              0.0001
 Quadrupole moment (field-independent basis, Debye-Ang):
   XX=            -29.9728   YY=            -40.1032   ZZ=            -38.0841
   XY=             -4.9348   XZ=              0.0000   YZ=              0.0000

 ESP charges:
               1
     1  O   -0.453438
     2  C   -0.025655
     3  C    0.187989
     4  C    0.191162
     5  O   -0.454470
     6  C   -0.024692
     7  H    0.095766
     8  H    0.063146
     9  H    0.063127
    10  H    0.034279
    11  H    0.034262
    12  H    0.033586
    13  H    0.033589
    14  H    0.095647
    15  H    0.062857
    16  H    0.062844
 Sum of ESP charges =   0.00000

 Normal termination of Gaussian 09 at Tue Dec 13 15:00:32 2022.
