 Gaussian 09, Revision D.01,
 Gaussian 09:  ES64L-G09RevD.01 24-Apr-2013

 --------------------------------------
 # opt b3lyp/6-311++g geom=connectivity
 --------------------------------------

 -------------------
 Title Card Required
 -------------------
 Symbolic Z-matrix:
 Charge =  0 Multiplicity = 1

 SCF Done:  E(RB3LYP) =  -308.841421412     A.U. after   11 cycles
 SCF Done:  E(RB3LYP) =  -308.851117400     A.U. after   10 cycles
 SCF Done:  E(RB3LYP) =  -308.852661665     A.U. after    9 cycles
 SCF Done:  E(RB3LYP) =  -308.852807102     A.U. after    9 cycles
 SCF Done:  E(RB3LYP) =  -308.852809715     A.U. after    7 cycles
 Optimization completed.
    -- Stationary point found.

                         Standard orientation:
 ---------------------------------------------------------------------
 Center     Atomic      Atomic             Coordinates (Angstroms)
 Number     Number       Type             X           Y           Z
 ---------------------------------------------------------------------
      1          8           0       -1.747197    0.519375    0.000014
      2          6           0       -3.050050   -0.118236   -0.000052
      3          6           0       -0.633469   -0.415571    0.000043
      4          6           0        0.633467    0.415564    0.000053
      5          8           0        1.747200   -0.519379    0.000023
      6          6           0        3.050048    0.118245   -0.000059
      7          1           0       -3.781616    0.685003   -0.000067
      8          1           0       -3.185856   -0.737341    0.893134
      9          1           0       -3.185784   -0.737307   -0.893271
     10          1           0       -0.668994   -1.052843   -0.889782
     11          1           0       -0.669022   -1.052820    0.889883
     12          1           0        0.669018    1.052806    0.889897
     13          1           0        0.668999    1.052831   -0.889772
     14          1           0        3.781621   -0.684986   -0.000076
     15          1           0        3.185867    0.737350    0.893128
     16          1           0        3.185767    0.737322   -0.893275
 ---------------------------------------------------------------------

 The electronic state is 1-A.
 Alpha  occ. eigenvalues --  -19.13027 -19.13027 -10.22389 -10.22366 -10.21994
 Alpha  occ. eigenvalues --  -10.21994  -1.03543  -1.02572  -0.77511  -0.70471
 Alpha  occ. eigenvalues --   -0.65930  -0.61344  -0.50271  -0.50191  -0.47567
 Alpha  occ. eigenvalues --   -0.46116  -0.45413  -0.43583  -0.42972  -0.37819
 Alpha  occ. eigenvalues --   -0.37429  -0.32305  -0.31899  -0.26740  -0.26072
 Alpha virt. eigenvalues --   -0.00677  -0.00200   0.01999   0.02088   0.02195
 Alpha virt. eigenvalues --    0.02839   0.03720   0.03884   0.05809   0.06575
 Alpha virt. eigenvalues --    0.06717   0.07136   0.08923   0.10286   0.10408

 Mulliken charges:
               1
     1  O   -0.193504
     2  C   -0.506519
     3  C   -0.441315
     4  C   -0.441308
     5  O   -0.193505
     6  C   -0.506520
     7  H    0.225407
     8  H    0.206834
     9  H    0.206835
    10  H    0.251129
    11  H    0.251131
    12  H    0.251130
    13  H    0.251129
    14  H    0.225408
    15  H    0.206834
    16  H    0.206834
 Sum of Mulliken charges =   0.00000

 Dipole moment (field-independent basis, Debye):
    X=              0.0000    Y=              0.0000    Z=             -0.0001  Tot=              0.0001
 Quadrupole moment (field-independent basis, Debye-Ang):
   XX=            -30.2138   YY=            -41.5594   ZZ=            -38.9485
   XY=              5.3678   XZ=              0.0000   YZ=              0.0000

 Normal termination of Gaussian 09 at Tue Dec 13 11:30:43 2022.
