 Gaussian 09, Revision D.01,
 Gaussian 09:  ES64L-G09RevD.01 24-Apr-2013

 --------------------------------------
 # opt b3lyp/6-311++g geom=connectivity
 --------------------------------------

 -------
 opt 13c
 -------
 Symbolic Z-matrix:
 Charge =  0 Multiplicity = 1

 SCF Done:  E(RB3LYP) =  -818.737675145     A.U. after   14 cycles
 SCF Done:  E(RB3LYP) =  -818.761471116     A.U. after   12 cycles
 SCF Done:  E(RB3LYP) =  -818.764260865     A.U. after   12 cycles
 SCF Done:  E(RB3LYP) =  -818.764606059     A.U. after   13 cycles
 SCF Done:  E(RB3LYP) =  -818.764262526     A.U. after   12 cycles
 SCF Done:  E(RB3LYP) =  -818.764729297     A.U. after   13 cycles
 SCF Done:  E(RB3LYP) =  -818.764740518     A.U. after   12 cycles
 SCF Done:  E(RB3LYP) =  -818.764741555     A.U. after   10 cycles
 SCF Done:  E(RB3LYP) =  -818.764742008     A.U. after    9 cycles
 SCF Done:  E(RB3LYP) =  -818.764742030     A.U. after    9 cycles
 SCF Done:  E(RB3LYP) =  -818.764742024     A.U. after    9 cycles
 SCF Done:  E(RB3LYP) =  -818.764742039     A.U. after    9 cycles
 SCF Done:  E(RB3LYP) =  -818.764742084     A.U. after    9 cycles
 SCF Done:  E(RB3LYP) =  -818.764742125     A.U. after    8 cycles
 Optimization completed.
    -- Stationary point found.

                         Standard orientation:
 ---------------------------------------------------------------------
 Center     Atomic      Atomic             Coordinates (Angstroms)
 Number     Number       Type             X           Y           Z
 ---------------------------------------------------------------------
      1          8           0        6.174341    0.406738   -0.286146
      2          8           0        6.611074   -1.453517    0.987807
      3          6           0       -1.758653   -0.008653    0.258941
      4          6           0       -3.112739   -0.545333   -0.235626
      5          6           0       -0.553056   -0.814232   -0.254595
      6          6           0       -4.317246    0.268237    0.267871
      7          6           0        0.799802   -0.277685    0.243466
      8          6           0       -5.671771   -0.268120   -0.225924
      9          6           0        2.006092   -1.075196   -0.280814
     10          6           0       -6.875642    0.551099    0.269957
     11          6           0        3.353118   -0.537023    0.228630
     12          6           0       -8.230256    0.014952   -0.223056
     13          6           0        4.554638   -1.341771   -0.318278
     14          6           0       -9.434484    0.836724    0.268222
     15          6           0        5.875684   -0.843678    0.202965
     16          6           0        7.440793    1.071830    0.157882
     17          6           0      -10.782796    0.292995   -0.227947
     18          6           0        7.148273    2.563788    0.123019
     19          6           0        8.572045    0.634753   -0.765552
     20          1           0       -1.650732    1.037973   -0.050548
     21          1           0       -1.750464   -0.005746    1.355579
     22          1           0       -3.117755   -0.555648   -1.332306
     23          1           0       -3.224723   -1.589487    0.080585
     24          1           0       -0.661375   -1.861533    0.052078
     25          1           0       -0.559927   -0.813951   -1.351265
     26          1           0       -4.312022    0.280209    1.364505
     27          1           0       -4.205078    1.311968   -0.049859
     28          1           0        0.904388    0.772115   -0.055522
     29          1           0        0.809798   -0.286597    1.339897
     30          1           0       -5.674570   -0.285481   -1.322515
     31          1           0       -5.786853   -1.310002    0.096661
     32          1           0        1.899496   -2.126400    0.011738
     33          1           0        2.001420   -1.058450   -1.377256
     34          1           0       -6.872629    0.569599    1.366553
     35          1           0       -6.760546    1.592706   -0.053722
     36          1           0        3.466481    0.510839   -0.060031
     37          1           0        3.367592   -0.568621    1.323065
     38          1           0       -8.233111   -0.006691   -1.319702
     39          1           0       -8.348154   -1.025626    0.103274
     40          1           0        4.468829   -2.390753   -0.035246
     41          1           0        4.562700   -1.280138   -1.409513
     42          1           0       -9.431116    0.859068    1.363886
     43          1           0       -9.317394    1.876149   -0.058644
     44          1           0        7.631247    0.729411    1.175350
     45          1           0      -11.615883    0.898164    0.137176
     46          1           0      -10.943006   -0.733441    0.113228
     47          1           0      -10.828189    0.289330   -1.320428
     48          1           0        6.903799    2.886218   -0.890343
     49          1           0        8.350845    0.909466   -1.798509
     50          1           0        8.723972   -0.442853   -0.711278
     51          1           0        6.309733    2.809529    0.774629
     52          1           0        8.022545    3.124113    0.462053
     53          1           0        9.504548    1.122671   -0.471828
 ---------------------------------------------------------------------

 The electronic state is 1-A.
 Alpha  occ. eigenvalues --  -19.16605 -19.12170 -10.31796 -10.24496 -10.18933
 Alpha  occ. eigenvalues --  -10.17948 -10.17317 -10.17238 -10.17025 -10.16981
 Alpha  occ. eigenvalues --  -10.16801 -10.16678 -10.16654 -10.16601 -10.16550
 Alpha  occ. eigenvalues --  -10.16515 -10.16487 -10.16448 -10.15820  -1.10589
 Alpha  occ. eigenvalues --   -1.02347  -0.82678  -0.81756  -0.80838  -0.79689
 Alpha  occ. eigenvalues --   -0.77827  -0.75316  -0.72287  -0.70778  -0.68865
 Alpha  occ. eigenvalues --   -0.65336  -0.62714  -0.61067  -0.59206  -0.58636
 Alpha  occ. eigenvalues --   -0.58087  -0.57852  -0.56038  -0.50521  -0.49536
 Alpha  occ. eigenvalues --   -0.48805  -0.47791  -0.47453  -0.46671  -0.45366
 Alpha  occ. eigenvalues --   -0.44861  -0.43947  -0.43367  -0.43161  -0.42547
 Alpha  occ. eigenvalues --   -0.41659  -0.41383  -0.40656  -0.40431  -0.39895
 Alpha  occ. eigenvalues --   -0.39120  -0.38212  -0.37725  -0.37139  -0.36934
 Alpha  occ. eigenvalues --   -0.36205  -0.36010  -0.35117  -0.34586  -0.34130
 Alpha  occ. eigenvalues --   -0.33872  -0.33430  -0.33213  -0.32995  -0.32827
 Alpha  occ. eigenvalues --   -0.32587  -0.32479  -0.32342  -0.30242  -0.30048
 Alpha  occ. eigenvalues --   -0.27579
 Alpha virt. eigenvalues --   -0.01620  -0.00865  -0.00668  -0.00234   0.00167
 Alpha virt. eigenvalues --    0.00457   0.00703   0.00866   0.01294   0.01647
 Alpha virt. eigenvalues --    0.01852   0.02110   0.02693   0.02934   0.03194

 Mulliken charges:
               1
     1  O    0.073618
     2  O   -0.232554
     3  C   -0.439492
     4  C   -0.435503
     5  C   -0.468933
     6  C   -0.449231
     7  C   -0.403873
     8  C   -0.419350
     9  C   -0.451001
    10  C   -0.357628
    11  C   -0.054127
    12  C   -0.381312
    13  C   -0.183186
    14  C   -0.222084
    15  C   -0.747140
    16  C   -0.208922
    17  C   -0.957367
    18  C   -0.830273
    19  C   -0.639669
    20  H    0.210984
    21  H    0.213435
    22  H    0.212500
    23  H    0.213222
    24  H    0.213698
    25  H    0.214206
    26  H    0.213421
    27  H    0.212704
    28  H    0.217002
    29  H    0.216412
    30  H    0.211808
    31  H    0.212202
    32  H    0.220771
    33  H    0.217473
    34  H    0.209536
    35  H    0.208828
    36  H    0.252363
    37  H    0.245980
    38  H    0.209898
    39  H    0.210115
    40  H    0.259124
    41  H    0.294837
    42  H    0.223203
    43  H    0.223086
    44  H    0.306663
    45  H    0.243737
    46  H    0.215912
    47  H    0.215847
    48  H    0.261578
    49  H    0.249910
    50  H    0.284301
    51  H    0.238491
    52  H    0.221906
    53  H    0.232873
 Sum of Mulliken charges =   0.00000

 Dipole moment (field-independent basis, Debye):
    X=             -0.8020    Y=              1.8093    Z=             -1.0998  Tot=              2.2641
 Quadrupole moment (field-independent basis, Debye-Ang):
   XX=           -130.5413   YY=           -127.4182   ZZ=           -127.3092
   XY=             15.9292   XZ=             -8.7196   YZ=              2.8270

 Normal termination of Gaussian 09 at Tue Dec 13 11:19:53 2022.
